============================== echo of input deck ==============================
echo "CH4"
start CH4

scratch_dir /tmp
permanent_dir .

memory total 250 Mb
geometry units angstrom
 symmetry c1
C         -0.38896        0.21209        0.00000
H          0.68104        0.21209        0.00000
H         -0.74562       -0.50729        0.70723
H         -0.74563       -0.04070       -0.97662
H         -0.74563        1.18426        0.26938
end

basis "ao basis" cartesian
 H library "6-311G**"
 C library "6-311G**"
end

charge 0

scf
    rhf
    singlet
    direct
    maxiter 100
end

task scf optimize
================================================================================

         Total SCF energy =    -40.208463957721

 Vector    2  Occ=2.000000D+00  E=-9.510153D-01

 Vector    3  Occ=2.000000D+00  E=-5.497890D-01

 Vector    4  Occ=2.000000D+00  E=-5.497867D-01

 Vector    5  Occ=2.000000D+00  E=-5.497856D-01

 Vector    6  Occ=0.000000D+00  E= 1.600092D-01

 Vector    7  Occ=0.000000D+00  E= 2.385375D-01

 Vector    8  Occ=0.000000D+00  E= 2.385378D-01

 Vector    9  Occ=0.000000D+00  E= 2.385379D-01

 Vector   10  Occ=0.000000D+00  E= 4.291695D-01

 Vector   11  Occ=0.000000D+00  E= 4.291700D-01

 Vector   12  Occ=0.000000D+00  E= 4.291714D-01

 Vector   13  Occ=0.000000D+00  E= 7.673825D-01

 Vector   14  Occ=0.000000D+00  E= 8.211419D-01

 Vector   15  Occ=0.000000D+00  E= 8.211429D-01

@ Step       Energy      Delta E   Gmax     Grms     Xrms     Xmax   Walltime
@ ---- ---------------- -------- -------- -------- -------- -------- --------
@    0     -40.20846396  0.0D+00  0.01055  0.00667  0.00000  0.00000      1.2
         Total SCF energy =    -40.209019085870

 Vector    2  Occ=2.000000D+00  E=-9.444977D-01

 Vector    3  Occ=2.000000D+00  E=-5.457705D-01

 Vector    4  Occ=2.000000D+00  E=-5.457703D-01

 Vector    5  Occ=2.000000D+00  E=-5.457700D-01

 Vector    6  Occ=0.000000D+00  E= 1.586930D-01

 Vector    7  Occ=0.000000D+00  E= 2.373835D-01

 Vector    8  Occ=0.000000D+00  E= 2.373854D-01

 Vector    9  Occ=0.000000D+00  E= 2.373873D-01

 Vector   10  Occ=0.000000D+00  E= 4.275476D-01

 Vector   11  Occ=0.000000D+00  E= 4.275479D-01

 Vector   12  Occ=0.000000D+00  E= 4.275488D-01

 Vector   13  Occ=0.000000D+00  E= 7.509432D-01

 Vector   14  Occ=0.000000D+00  E= 8.139910D-01

 Vector   15  Occ=0.000000D+00  E= 8.139925D-01

         Total SCF energy =    -40.209019085870
@    1     -40.20901909 -5.6D-04  0.00092  0.00058  0.01513  0.02929      2.2
         Total SCF energy =    -40.209023575443

 Vector    2  Occ=2.000000D+00  E=-9.450153D-01

 Vector    3  Occ=2.000000D+00  E=-5.460899D-01

 Vector    4  Occ=2.000000D+00  E=-5.460898D-01

 Vector    5  Occ=2.000000D+00  E=-5.460895D-01

 Vector    6  Occ=0.000000D+00  E= 1.588026D-01

 Vector    7  Occ=0.000000D+00  E= 2.374796D-01

 Vector    8  Occ=0.000000D+00  E= 2.374817D-01

 Vector    9  Occ=0.000000D+00  E= 2.374838D-01

 Vector   10  Occ=0.000000D+00  E= 4.276751D-01

 Vector   11  Occ=0.000000D+00  E= 4.276769D-01

 Vector   12  Occ=0.000000D+00  E= 4.276785D-01

 Vector   13  Occ=0.000000D+00  E= 7.522524D-01

 Vector   14  Occ=0.000000D+00  E= 8.145614D-01

 Vector   15  Occ=0.000000D+00  E= 8.145632D-01

         Total SCF energy =    -40.209023575443
@    2     -40.20902358 -4.5D-06  0.00003  0.00002  0.00121  0.00235      2.8
         Total SCF energy =    -40.209023582613

 Vector    2  Occ=2.000000D+00  E=-9.450353D-01

 Vector    3  Occ=2.000000D+00  E=-5.461024D-01

 Vector    4  Occ=2.000000D+00  E=-5.461022D-01

 Vector    5  Occ=2.000000D+00  E=-5.461020D-01

 Vector    6  Occ=0.000000D+00  E= 1.588069D-01

 Vector    7  Occ=0.000000D+00  E= 2.374834D-01

 Vector    8  Occ=0.000000D+00  E= 2.374855D-01

 Vector    9  Occ=0.000000D+00  E= 2.374875D-01

 Vector   10  Occ=0.000000D+00  E= 4.276800D-01

 Vector   11  Occ=0.000000D+00  E= 4.276819D-01

 Vector   12  Occ=0.000000D+00  E= 4.276835D-01

 Vector   13  Occ=0.000000D+00  E= 7.523029D-01

 Vector   14  Occ=0.000000D+00  E= 8.145834D-01

 Vector   15  Occ=0.000000D+00  E= 8.145851D-01

       Multipole analysis of the density wrt the origin
       ------------------------------------------------

     L   x y z        total         open         nuclear
     -   - - -        -----         ----         -------
     0   0 0 0     -0.000000      0.000000     10.000000

     1   1 0 0      0.000000      0.000000      0.000000
     1   0 1 0      0.000001      0.000000      0.000000
     1   0 0 1      0.000001      0.000000     -0.000018

     2   2 0 0     -6.247171      0.000000      5.597118
     2   1 1 0     -0.000003      0.000000     -0.000002
     2   1 0 1      0.000001      0.000000      0.000002
     2   0 2 0     -6.247169      0.000000      5.597120
     2   0 1 1      0.000001      0.000000     -0.000002

         Total SCF energy =    -40.209023582613
@    3     -40.20902358 -7.2D-09  0.00000  0.00000  0.00005  0.00009      3.4
@    3     -40.20902358 -7.2D-09  0.00000  0.00000  0.00005  0.00009      3.4

 Output coordinates in angstroms (scale by  1.889725989 to convert to a.u.)

  No.       Tag          Charge          X              Y              Z
 ---- ---------------- ---------- -------------- -------------- --------------
    1 C                    6.0000     0.00000000     0.00000002    -0.00000088
    2 H                    1.0000     1.08421155     0.00000235    -0.00000206
    3 H                    1.0000    -0.36140103    -0.72893674     0.71662663
    4 H                    1.0000    -0.36140453    -0.25615021    -0.98959098
    5 H                    1.0000    -0.36140599     0.98508458     0.27296228

 Total times  cpu:        1.7s     wall:        3.4s
