============================== echo of input deck ==============================
echo "F"
start F

scratch_dir /tmp
permanent_dir .

memory total 250 Mb

geometry units angstrom
 symmetry c1
 F 0.00 0.00 0.00
end

basis "ao basis" cartesian
 F library "6-31G*"
end

charge 0

scf
  uhf
  doublet
  direct
  maxiter 100
end

task scf energy
================================================================================

 Output coordinates in angstroms (scale by  1.889725989 to convert to a.u.)

  No.       Tag          Charge          X              Y              Z
 ---- ---------------- ---------- -------------- -------------- --------------
    1 F                    9.0000     0.00000000     0.00000000     0.00000000

         Total SCF energy =    -99.364956869560

 Vector    2  Occ=1.000000D+00  E=-1.654914D+00

 Vector    3  Occ=1.000000D+00  E=-8.231598D-01

 Vector    4  Occ=1.000000D+00  E=-7.152453D-01

 Vector    5  Occ=1.000000D+00  E=-7.152453D-01

 Vector    6  Occ=0.000000D+00  E= 1.067969D+00

 Vector    7  Occ=0.000000D+00  E= 1.364985D+00

 Vector    8  Occ=0.000000D+00  E= 1.433411D+00

 Vector    9  Occ=0.000000D+00  E= 1.433411D+00

 Vector   10  Occ=0.000000D+00  E= 2.040470D+00

 Vector   11  Occ=0.000000D+00  E= 2.057751D+00

 Vector   12  Occ=0.000000D+00  E= 2.057751D+00

 Vector   13  Occ=0.000000D+00  E= 2.111919D+00

 Vector   14  Occ=0.000000D+00  E= 2.111919D+00

 Vector   15  Occ=0.000000D+00  E= 3.698534D+00

 Vector    2  Occ=1.000000D+00  E=-1.463003D+00

 Vector    3  Occ=1.000000D+00  E=-6.635996D-01

 Vector    4  Occ=1.000000D+00  E=-6.635996D-01

 Vector    5  Occ=0.000000D+00  E= 9.366421D-02

 Vector    6  Occ=0.000000D+00  E= 1.100269D+00

 Vector    7  Occ=0.000000D+00  E= 1.458665D+00

 Vector    8  Occ=0.000000D+00  E= 1.458665D+00

 Vector    9  Occ=0.000000D+00  E= 1.588486D+00

 Vector   10  Occ=0.000000D+00  E= 2.118654D+00

 Vector   11  Occ=0.000000D+00  E= 2.118654D+00

 Vector   12  Occ=0.000000D+00  E= 2.146565D+00

 Vector   13  Occ=0.000000D+00  E= 2.146565D+00

 Vector   14  Occ=0.000000D+00  E= 2.157571D+00

 Vector   15  Occ=0.000000D+00  E= 3.741530D+00

       Multipole analysis of the density wrt the origin
       ------------------------------------------------

     L   x y z        total         alpha         beta         nuclear
     -   - - -        -----         -----         ----         -------
     0   0 0 0      0.000000     -5.000000     -4.000000      9.000000

     1   1 0 0      0.000000      0.000000     -0.000000      0.000000
     1   0 1 0     -0.000000     -0.000000     -0.000000      0.000000
     1   0 0 1      0.000000      0.000000      0.000000      0.000000

     2   2 0 0     -3.496960     -1.853687     -1.643273      0.000000
     2   1 1 0      0.018917     -0.000041      0.018958      0.000000
     2   1 0 1      0.038648     -0.000083      0.038731      0.000000
     2   0 2 0     -3.377882     -1.853943     -1.523939      0.000000
     2   0 1 1      0.249268     -0.000535      0.249804      0.000000

 Total times  cpu:        0.1s     wall:        0.2s
