============================== echo of input deck ==============================
echo "H"
start H

scratch_dir /tmp
permanent_dir .

memory total 250 Mb

geometry units angstrom
 symmetry c1
 H 0.00 0.00 0.00
end

basis "ao basis" cartesian
 H library "6-311G**"
end

charge 0

scf
  uhf
  doublet
  direct
  maxiter 100
end

task scf energy
================================================================================

 Output coordinates in angstroms (scale by  1.889725989 to convert to a.u.)

  No.       Tag          Charge          X              Y              Z
 ---- ---------------- ---------- -------------- -------------- --------------
    1 H                    1.0000     0.00000000     0.00000000     0.00000000

         Total SCF energy =     -0.499809815273

 Vector    1  Occ=1.000000D+00  E=-4.998098D-01

 Vector    2  Occ=0.000000D+00  E= 3.489043D-01

 Vector    3  Occ=0.000000D+00  E= 1.490761D+00

 Vector    4  Occ=0.000000D+00  E= 1.490761D+00

 Vector    5  Occ=0.000000D+00  E= 1.490761D+00

 Vector    6  Occ=0.000000D+00  E= 2.469954D+00

 Vector    1  Occ=0.000000D+00  E= 5.625058D-02

 Vector    2  Occ=0.000000D+00  E= 4.923826D-01

 Vector    3  Occ=0.000000D+00  E= 1.622015D+00

 Vector    4  Occ=0.000000D+00  E= 1.622015D+00

 Vector    5  Occ=0.000000D+00  E= 1.622015D+00

 Vector    6  Occ=0.000000D+00  E= 2.601468D+00

       Multipole analysis of the density wrt the origin
       ------------------------------------------------

     L   x y z        total         alpha         beta         nuclear
     -   - - -        -----         -----         ----         -------
     0   0 0 0     -0.000000     -1.000000      0.000000      1.000000

     1   1 0 0      0.000000      0.000000      0.000000      0.000000
     1   0 1 0      0.000000      0.000000      0.000000      0.000000
     1   0 0 1      0.000000      0.000000      0.000000      0.000000

     2   2 0 0     -0.996999     -0.996999      0.000000      0.000000
     2   1 1 0      0.000000      0.000000      0.000000      0.000000
     2   1 0 1      0.000000      0.000000      0.000000      0.000000
     2   0 2 0     -0.996999     -0.996999      0.000000      0.000000
     2   0 1 1      0.000000      0.000000      0.000000      0.000000

 Total times  cpu:        0.0s     wall:        0.0s
