============================== echo of input deck ==============================
echo "H2"
start H2

scratch_dir /tmp
permanent_dir .

memory total 250 Mb
geometry units angstrom
 symmetry c1
 H 0.00 0.00 -0.32
 H 0.00 0.00 0.32
end

basis "ao basis" cartesian
 H library "6-311G**"
end

charge 0

scf
    rhf
    singlet
    direct
    maxiter 100
end

task scf optimize
================================================================================

         Total SCF energy =     -1.124405091824

 Vector    1  Occ=2.000000D+00  E=-6.275646D-01

 Vector    2  Occ=0.000000D+00  E= 1.789125D-01

 Vector    3  Occ=0.000000D+00  E= 2.986812D-01

 Vector    4  Occ=0.000000D+00  E= 6.761094D-01

 Vector    5  Occ=0.000000D+00  E= 1.347057D+00

 Vector    6  Occ=0.000000D+00  E= 1.347057D+00

 Vector    7  Occ=0.000000D+00  E= 1.861884D+00

 Vector    8  Occ=0.000000D+00  E= 2.080031D+00

 Vector    9  Occ=0.000000D+00  E= 2.169358D+00

 Vector   10  Occ=0.000000D+00  E= 2.169358D+00

 Vector   11  Occ=0.000000D+00  E= 2.697915D+00

@ Step       Energy      Delta E   Gmax     Grms     Xrms     Xmax   Walltime
@ ---- ---------------- -------- -------- -------- -------- -------- --------
@    0      -1.12440509  0.0D+00  0.09959  0.09959  0.00000  0.00000      0.3
         Total SCF energy =     -1.131579692418

 Vector    1  Occ=2.000000D+00  E=-5.849332D-01

 Vector    2  Occ=0.000000D+00  E= 1.618278D-01

 Vector    3  Occ=0.000000D+00  E= 3.094322D-01

 Vector    4  Occ=0.000000D+00  E= 6.335178D-01

 Vector    5  Occ=0.000000D+00  E= 1.329184D+00

 Vector    6  Occ=0.000000D+00  E= 1.329184D+00

 Vector    7  Occ=0.000000D+00  E= 1.799618D+00

 Vector    8  Occ=0.000000D+00  E= 2.075667D+00

 Vector    9  Occ=0.000000D+00  E= 2.075667D+00

 Vector   10  Occ=0.000000D+00  E= 2.260168D+00

 Vector   11  Occ=0.000000D+00  E= 2.711624D+00

         Total SCF energy =     -1.132486440539

 Vector    1  Occ=2.000000D+00  E=-5.968805D-01

 Vector    2  Occ=0.000000D+00  E= 1.673427D-01

 Vector    3  Occ=0.000000D+00  E= 3.062037D-01

 Vector    4  Occ=0.000000D+00  E= 6.466745D-01

 Vector    5  Occ=0.000000D+00  E= 1.333298D+00

 Vector    6  Occ=0.000000D+00  E= 1.333298D+00

 Vector    7  Occ=0.000000D+00  E= 1.821999D+00

 Vector    8  Occ=0.000000D+00  E= 2.103571D+00

 Vector    9  Occ=0.000000D+00  E= 2.103571D+00

 Vector   10  Occ=0.000000D+00  E= 2.193871D+00

 Vector   11  Occ=0.000000D+00  E= 2.709363D+00

@    1      -1.13248644 -8.1D-03  0.00191  0.00191  0.05073  0.08787      0.3
         Total SCF energy =     -1.132490585410

 Vector    1  Occ=2.000000D+00  E=-5.963173D-01

 Vector    2  Occ=0.000000D+00  E= 1.670973D-01

 Vector    3  Occ=0.000000D+00  E= 3.063516D-01

 Vector    4  Occ=0.000000D+00  E= 6.460802D-01

 Vector    5  Occ=0.000000D+00  E= 1.333085D+00

 Vector    6  Occ=0.000000D+00  E= 1.333085D+00

 Vector    7  Occ=0.000000D+00  E= 1.821035D+00

 Vector    8  Occ=0.000000D+00  E= 2.102286D+00

 Vector    9  Occ=0.000000D+00  E= 2.102286D+00

 Vector   10  Occ=0.000000D+00  E= 2.196783D+00

 Vector   11  Occ=0.000000D+00  E= 2.709503D+00

         Total SCF energy =     -1.132490910428

 Vector    1  Occ=2.000000D+00  E=-5.961123D-01

 Vector    2  Occ=0.000000D+00  E= 1.670075D-01

 Vector    3  Occ=0.000000D+00  E= 3.064056D-01

 Vector    4  Occ=0.000000D+00  E= 6.458632D-01

 Vector    5  Occ=0.000000D+00  E= 1.333008D+00

 Vector    6  Occ=0.000000D+00  E= 1.333008D+00

 Vector    7  Occ=0.000000D+00  E= 1.820682D+00

 Vector    8  Occ=0.000000D+00  E= 2.101818D+00

 Vector    9  Occ=0.000000D+00  E= 2.101818D+00

 Vector   10  Occ=0.000000D+00  E= 2.197849D+00

 Vector   11  Occ=0.000000D+00  E= 2.709553D+00

@    2      -1.13249091 -4.5D-06  0.00001  0.00001  0.00135  0.00234      0.4
         Total SCF energy =     -1.132490910483

 Vector    1  Occ=2.000000D+00  E=-5.961083D-01

 Vector    2  Occ=0.000000D+00  E= 1.670066D-01

 Vector    3  Occ=0.000000D+00  E= 3.064066D-01

 Vector    4  Occ=0.000000D+00  E= 6.458608D-01

 Vector    5  Occ=0.000000D+00  E= 1.333008D+00

 Vector    6  Occ=0.000000D+00  E= 1.333008D+00

 Vector    7  Occ=0.000000D+00  E= 1.820678D+00

 Vector    8  Occ=0.000000D+00  E= 2.101812D+00

 Vector    9  Occ=0.000000D+00  E= 2.101812D+00

 Vector   10  Occ=0.000000D+00  E= 2.197866D+00

 Vector   11  Occ=0.000000D+00  E= 2.709556D+00

       Multipole analysis of the density wrt the origin
       ------------------------------------------------

     L   x y z        total         open         nuclear
     -   - - -        -----         ----         -------
     0   0 0 0     -0.000000      0.000000      2.000000

     1   1 0 0     -0.000000      0.000000      0.000000
     1   0 1 0      0.000000      0.000000      0.000000
     1   0 0 1      0.000000      0.000000      0.000000

     2   2 0 0     -1.541562      0.000000      0.000000
     2   1 1 0     -0.000000      0.000000      0.000000
     2   1 0 1     -0.000000      0.000000      0.000000
     2   0 2 0     -1.541562      0.000000      0.000000
     2   0 1 1     -0.000000      0.000000      0.000000

         Total SCF energy =     -1.132490910483
@    3      -1.13249091 -5.5D-11  0.00000  0.00000  0.00001  0.00001      0.4
@    3      -1.13249091 -5.5D-11  0.00000  0.00000  0.00001  0.00001      0.4

 Output coordinates in angstroms (scale by  1.889725989 to convert to a.u.)

  No.       Tag          Charge          X              Y              Z
 ---- ---------------- ---------- -------------- -------------- --------------
    1 H                    1.0000     0.00000000     0.00000000    -0.36774042
    2 H                    1.0000     0.00000000     0.00000000     0.36774042

 Total times  cpu:        0.1s     wall:        0.5s
