============================== echo of input deck ==============================
echo "H2"
start H2

scratch_dir /tmp
permanent_dir .

memory total 250 Mb
geometry units angstrom
 symmetry c1
 H 0.00 0.00 -0.32
 H 0.00 0.00 0.32
end

basis "ao basis" cartesian
 H library "6-311G**"
end

charge 0

scf
    rhf
    singlet
    direct
    maxiter 100
end

task scf energy

geometry adjust
 zcoord
  bond 1 2 0.66 end
 end
end

task scf energy

geometry adjust
 zcoord
  bond 1 2 0.68 end
 end
end

task scf energy

geometry adjust
 zcoord
  bond 1 2 0.70 end
 end
end

task scf energy

geometry adjust
 zcoord
  bond 1 2 0.72 end
 end
end

task scf energy

geometry adjust
 zcoord
  bond 1 2 0.74 end
 end
end

task scf energy

geometry adjust
 zcoord
  bond 1 2 0.76 end
 end
end

task scf energy

geometry adjust
 zcoord
  bond 1 2 0.78 end
 end
end

task scf energy

================================================================================

         Total SCF energy =     -1.124405091824

 Vector    9  Occ=0.000000D+00  E= 2.169358D+00

 Vector   10  Occ=0.000000D+00  E= 2.169358D+00

 Vector   11  Occ=0.000000D+00  E= 2.697915D+00

         Total SCF energy =     -1.127664965916

 Vector    1  Occ=2.000000D+00  E=-6.206517D-01  Symmetry=a1g

 Vector    2  Occ=0.000000D+00  E= 1.765809D-01  Symmetry=a2u

 Vector    3  Occ=0.000000D+00  E= 3.002913D-01  Symmetry=a1g

 Vector    4  Occ=0.000000D+00  E= 6.698530D-01  Symmetry=a2u

 Vector    5  Occ=0.000000D+00  E= 1.343647D+00  Symmetry=eu

 Vector    6  Occ=0.000000D+00  E= 1.343647D+00  Symmetry=eu

 Vector    7  Occ=0.000000D+00  E= 1.854967D+00  Symmetry=a1g

 Vector    8  Occ=0.000000D+00  E= 2.097240D+00  Symmetry=a2u

 Vector    9  Occ=0.000000D+00  E= 2.155244D+00  Symmetry=eg

 Vector   10  Occ=0.000000D+00  E= 2.155244D+00  Symmetry=eg

 Vector   11  Occ=0.000000D+00  E= 2.701033D+00  Symmetry=a1g

         Total SCF energy =     -1.129998122904

 Vector    1  Occ=2.000000D+00  E=-6.139142D-01  Symmetry=a1g

 Vector    2  Occ=0.000000D+00  E= 1.741683D-01  Symmetry=a2u

 Vector    3  Occ=0.000000D+00  E= 3.019050D-01  Symmetry=a1g

 Vector    4  Occ=0.000000D+00  E= 6.636027D-01  Symmetry=a2u

 Vector    5  Occ=0.000000D+00  E= 1.340476D+00  Symmetry=eu

 Vector    6  Occ=0.000000D+00  E= 1.340476D+00  Symmetry=eu

 Vector    7  Occ=0.000000D+00  E= 1.847106D+00  Symmetry=a1g

 Vector    8  Occ=0.000000D+00  E= 2.118925D+00  Symmetry=a2u

 Vector    9  Occ=0.000000D+00  E= 2.141101D+00  Symmetry=eg

 Vector   10  Occ=0.000000D+00  E= 2.141101D+00  Symmetry=eg

 Vector   11  Occ=0.000000D+00  E= 2.703820D+00  Symmetry=a1g

         Total SCF energy =     -1.131515187653

 Vector    1  Occ=2.000000D+00  E=-6.073489D-01  Symmetry=a1g

 Vector    2  Occ=0.000000D+00  E= 1.716680D-01  Symmetry=a2u

 Vector    3  Occ=0.000000D+00  E= 3.035229D-01  Symmetry=a1g

 Vector    4  Occ=0.000000D+00  E= 6.572981D-01  Symmetry=a2u

 Vector    5  Occ=0.000000D+00  E= 1.337552D+00  Symmetry=eu

 Vector    6  Occ=0.000000D+00  E= 1.337552D+00  Symmetry=eu

 Vector    7  Occ=0.000000D+00  E= 1.838338D+00  Symmetry=a1g

 Vector    8  Occ=0.000000D+00  E= 2.126939D+00  Symmetry=eg

 Vector    9  Occ=0.000000D+00  E= 2.126939D+00  Symmetry=eg

 Vector   10  Occ=0.000000D+00  E= 2.144579D+00  Symmetry=a2u

 Vector   11  Occ=0.000000D+00  E= 2.706237D+00  Symmetry=a1g

         Total SCF energy =     -1.132312961397

 Vector    1  Occ=2.000000D+00  E=-6.009511D-01  Symmetry=a1g

 Vector    2  Occ=0.000000D+00  E= 1.690761D-01  Symmetry=a2u

 Vector    3  Occ=0.000000D+00  E= 3.051458D-01  Symmetry=a1g

 Vector    4  Occ=0.000000D+00  E= 6.508963D-01  Symmetry=a2u

 Vector    5  Occ=0.000000D+00  E= 1.334885D+00  Symmetry=eu

 Vector    6  Occ=0.000000D+00  E= 1.334885D+00  Symmetry=eu

 Vector    7  Occ=0.000000D+00  E= 1.828702D+00  Symmetry=a1g

 Vector    8  Occ=0.000000D+00  E= 2.112771D+00  Symmetry=eg

 Vector    9  Occ=0.000000D+00  E= 2.112771D+00  Symmetry=eg

 Vector   10  Occ=0.000000D+00  E= 2.173575D+00  Symmetry=a2u

 Vector   11  Occ=0.000000D+00  E= 2.708262D+00  Symmetry=a1g

         Total SCF energy =     -1.132476370311

 Vector    1  Occ=2.000000D+00  E=-5.947161D-01  Symmetry=a1g

 Vector    2  Occ=0.000000D+00  E= 1.663899D-01  Symmetry=a2u

 Vector    3  Occ=0.000000D+00  E= 3.067745D-01  Symmetry=a1g

 Vector    4  Occ=0.000000D+00  E= 6.443734D-01  Symmetry=a2u

 Vector    5  Occ=0.000000D+00  E= 1.332486D+00  Symmetry=eu

 Vector    6  Occ=0.000000D+00  E= 1.332486D+00  Symmetry=eu

 Vector    7  Occ=0.000000D+00  E= 1.818240D+00  Symmetry=a1g

 Vector    8  Occ=0.000000D+00  E= 2.098609D+00  Symmetry=eg

 Vector    9  Occ=0.000000D+00  E= 2.098609D+00  Symmetry=eg

 Vector   10  Occ=0.000000D+00  E= 2.205199D+00  Symmetry=a2u

 Vector   11  Occ=0.000000D+00  E= 2.709881D+00  Symmetry=a1g

         Total SCF energy =     -1.132080106809

 Vector    1  Occ=2.000000D+00  E=-5.886395D-01  Symmetry=a1g

 Vector    2  Occ=0.000000D+00  E= 1.636089D-01  Symmetry=a2u

 Vector    3  Occ=0.000000D+00  E= 3.084100D-01  Symmetry=a1g

 Vector    4  Occ=0.000000D+00  E= 6.377233D-01  Symmetry=a2u

 Vector    5  Occ=0.000000D+00  E= 1.330364D+00  Symmetry=eu

 Vector    6  Occ=0.000000D+00  E= 1.330364D+00  Symmetry=eu

 Vector    7  Occ=0.000000D+00  E= 1.806998D+00  Symmetry=a1g

 Vector    8  Occ=0.000000D+00  E= 2.084466D+00  Symmetry=eg

 Vector    9  Occ=0.000000D+00  E= 2.084466D+00  Symmetry=eg

 Vector   10  Occ=0.000000D+00  E= 2.238695D+00  Symmetry=a2u

 Vector   11  Occ=0.000000D+00  E= 2.711086D+00  Symmetry=a1g

 Output coordinates in angstroms (scale by  1.889725989 to convert to a.u.)

  No.       Tag          Charge          X              Y              Z
 ---- ---------------- ---------- -------------- -------------- --------------
    1 H                    1.0000     0.00000000     0.00000000    -0.39000000
    2 H                    1.0000     0.00000000     0.00000000     0.39000000

         Total SCF energy =     -1.131190017048

 Vector    1  Occ=2.000000D+00  E=-5.827166D-01  Symmetry=a1g

 Vector    2  Occ=0.000000D+00  E= 1.607339D-01  Symmetry=a2u

 Vector    3  Occ=0.000000D+00  E= 3.100529D-01  Symmetry=a1g

 Vector    4  Occ=0.000000D+00  E= 6.309550D-01  Symmetry=a2u

 Vector    5  Occ=0.000000D+00  E= 1.328529D+00  Symmetry=eu

 Vector    6  Occ=0.000000D+00  E= 1.328529D+00  Symmetry=eu

 Vector    7  Occ=0.000000D+00  E= 1.795022D+00  Symmetry=a1g

 Vector    8  Occ=0.000000D+00  E= 2.070354D+00  Symmetry=eg

 Vector    9  Occ=0.000000D+00  E= 2.070354D+00  Symmetry=eg

 Vector   10  Occ=0.000000D+00  E= 2.273296D+00  Symmetry=a2u

 Vector   11  Occ=0.000000D+00  E= 2.711876D+00  Symmetry=a1g

       Multipole analysis of the density wrt the origin
       ------------------------------------------------

     L   x y z        total         open         nuclear
     -   - - -        -----         ----         -------
     0   0 0 0     -0.000000      0.000000      2.000000

     1   1 0 0      0.000000      0.000000      0.000000
     1   0 1 0      0.000000      0.000000      0.000000
     1   0 0 1     -0.000000      0.000000      0.000000

     2   2 0 0     -1.591911      0.000000      0.000000
     2   1 1 0      0.000000      0.000000      0.000000
     2   1 0 1      0.000000      0.000000      0.000000
     2   0 2 0     -1.591911      0.000000      0.000000
     2   0 1 1      0.000000      0.000000      0.000000

 Total times  cpu:        0.2s     wall:        0.5s
