============================== echo of input deck ==============================
echo "H2O"
start H2O

scratch_dir /tmp
permanent_dir .

memory total 250 Mb

geometry units angstrom
  symmetry c1
  O -1.32201 1.59105 0.00000
  H -0.35201 1.59105 0.00000
  H -1.64534 0.69834 -0.1985
end

basis "ao basis" cartesian
 H library "6-311G**"
 O library "6-311G**"
end

charge 0

scf
   rhf
    singlet
    direct
    maxiter 100
end

task scf optimize
================================================================================

         Total SCF energy =    -76.044711894950

 Vector    2  Occ=2.000000D+00  E=-1.331082D+00

 Vector    3  Occ=2.000000D+00  E=-7.084763D-01

 Vector    4  Occ=2.000000D+00  E=-5.595859D-01

 Vector    5  Occ=2.000000D+00  E=-4.969772D-01

 Vector    6  Occ=0.000000D+00  E= 1.482135D-01

 Vector    7  Occ=0.000000D+00  E= 2.149263D-01

 Vector    8  Occ=0.000000D+00  E= 5.706338D-01

 Vector    9  Occ=0.000000D+00  E= 5.904229D-01

 Vector   10  Occ=0.000000D+00  E= 1.000071D+00

 Vector   11  Occ=0.000000D+00  E= 1.005137D+00

 Vector   12  Occ=0.000000D+00  E= 1.104959D+00

 Vector   13  Occ=0.000000D+00  E= 1.239188D+00

 Vector   14  Occ=0.000000D+00  E= 1.496937D+00

 Vector   15  Occ=0.000000D+00  E= 1.560523D+00

@ Step       Energy      Delta E   Gmax     Grms     Xrms     Xmax   Walltime
@ ---- ---------------- -------- -------- -------- -------- -------- --------
@    0     -76.04471189  0.0D+00  0.03287  0.02720  0.00000  0.00000      0.7
         Total SCF energy =    -76.047078444183

 Vector    2  Occ=2.000000D+00  E=-1.349883D+00

 Vector    3  Occ=2.000000D+00  E=-7.192670D-01

 Vector    4  Occ=2.000000D+00  E=-5.723874D-01

 Vector    5  Occ=2.000000D+00  E=-5.007670D-01

 Vector    6  Occ=0.000000D+00  E= 1.516213D-01

 Vector    7  Occ=0.000000D+00  E= 2.186679D-01

 Vector    8  Occ=0.000000D+00  E= 5.790601D-01

 Vector    9  Occ=0.000000D+00  E= 6.204456D-01

 Vector   10  Occ=0.000000D+00  E= 9.964220D-01

 Vector   11  Occ=0.000000D+00  E= 1.003014D+00

 Vector   12  Occ=0.000000D+00  E= 1.111394D+00

 Vector   13  Occ=0.000000D+00  E= 1.241782D+00

 Vector   14  Occ=0.000000D+00  E= 1.498991D+00

 Vector   15  Occ=0.000000D+00  E= 1.514866D+00

         Total SCF energy =    -76.047078444183
@    1     -76.04707844 -2.4D-03  0.00258  0.00186  0.03776  0.06705      1.2
         Total SCF energy =    -76.047091944024

 Vector    2  Occ=2.000000D+00  E=-1.349089D+00

 Vector    3  Occ=2.000000D+00  E=-7.171020D-01

 Vector    4  Occ=2.000000D+00  E=-5.729645D-01

 Vector    5  Occ=2.000000D+00  E=-5.007655D-01

 Vector    6  Occ=0.000000D+00  E= 1.512249D-01

 Vector    7  Occ=0.000000D+00  E= 2.185161D-01

 Vector    8  Occ=0.000000D+00  E= 5.769514D-01

 Vector    9  Occ=0.000000D+00  E= 6.205578D-01

 Vector   10  Occ=0.000000D+00  E= 9.965856D-01

 Vector   11  Occ=0.000000D+00  E= 1.003026D+00

 Vector   12  Occ=0.000000D+00  E= 1.111305D+00

 Vector   13  Occ=0.000000D+00  E= 1.241948D+00

 Vector   14  Occ=0.000000D+00  E= 1.492296D+00

 Vector   15  Occ=0.000000D+00  E= 1.515880D+00

         Total SCF energy =    -76.047091944024
@    2     -76.04709194 -1.3D-05  0.00026  0.00017  0.00237  0.00475      1.5
         Total SCF energy =    -76.047092018240

 Vector    2  Occ=2.000000D+00  E=-1.349180D+00

 Vector    3  Occ=2.000000D+00  E=-7.172143D-01

 Vector    4  Occ=2.000000D+00  E=-5.729839D-01

 Vector    5  Occ=2.000000D+00  E=-5.007786D-01

 Vector    6  Occ=0.000000D+00  E= 1.512496D-01

 Vector    7  Occ=0.000000D+00  E= 2.185336D-01

 Vector    8  Occ=0.000000D+00  E= 5.770567D-01

 Vector    9  Occ=0.000000D+00  E= 6.206511D-01

 Vector   10  Occ=0.000000D+00  E= 9.965680D-01

 Vector   11  Occ=0.000000D+00  E= 1.003018D+00

 Vector   12  Occ=0.000000D+00  E= 1.111328D+00

 Vector   13  Occ=0.000000D+00  E= 1.241951D+00

 Vector   14  Occ=0.000000D+00  E= 1.492338D+00

 Vector   15  Occ=0.000000D+00  E= 1.515908D+00

       Multipole analysis of the density wrt the origin
       ------------------------------------------------

     L   x y z        total         open         nuclear
     -   - - -        -----         ----         -------
     0   0 0 0     -0.000000      0.000000     10.000000

     1   1 0 0      0.485914      0.000000     -0.050907
     1   0 1 0     -0.670795      0.000000      0.070296
     1   0 0 1     -0.149156      0.000000      0.015631

     2   2 0 0     -3.546374      0.000000      3.288687
     2   1 1 0      0.651642      0.000000      0.987993
     2   1 0 1      0.144897      0.000000      0.219687
     2   0 2 0     -4.079057      0.000000      2.451786
     2   0 1 1      0.272765      0.000000      0.545171

         Total SCF energy =    -76.047092018240
@    3     -76.04709202 -7.4D-08  0.00000  0.00000  0.00013  0.00023      1.9
@    3     -76.04709202 -7.4D-08  0.00000  0.00000  0.00013  0.00023      1.9

 Output coordinates in angstroms (scale by  1.889725989 to convert to a.u.)

  No.       Tag          Charge          X              Y              Z
 ---- ---------------- ---------- -------------- -------------- --------------
    1 O                    8.0000    -0.06851537     0.09458511     0.02103163
    2 H                    1.0000     0.87196556     0.06226131     0.01384422
    3 H                    1.0000    -0.35078119    -0.78174342    -0.17382584

 Total times  cpu:        1.2s     wall:        1.9s
