============================== echo of input deck ==============================
echo "H2O"
start H2O

scratch_dir /tmp
permanent_dir .

memory total 250 Mb

geometry units angstrom
  symmetry c1
  O -1.32201 1.59105 0.00000
  H -0.35201 1.59105 0.00000
  H -1.64534 0.69834 -0.1985
end

basis "ao basis" cartesian
 H library "6-311G*"
 O library "6-311G*"
end

charge 0

scf
   rhf
    singlet
    direct
    maxiter 100
end

task scf optimize

task scf freq
================================================================================

         Total SCF energy =    -76.030574547640

 Vector    6  Occ=0.000000D+00  E= 1.451748D-01

 Vector    7  Occ=0.000000D+00  E= 2.131561D-01

 Vector    8  Occ=0.000000D+00  E= 5.663731D-01

 Vector    9  Occ=0.000000D+00  E= 5.844663D-01

 Vector   10  Occ=0.000000D+00  E= 1.004010D+00

 Vector   11  Occ=0.000000D+00  E= 1.019271D+00

 Vector   12  Occ=0.000000D+00  E= 1.150620D+00

 Vector   13  Occ=0.000000D+00  E= 1.307834D+00

 Vector   14  Occ=0.000000D+00  E= 2.328898D+00

 Vector   15  Occ=0.000000D+00  E= 2.348573D+00

@ Step       Energy      Delta E   Gmax     Grms     Xrms     Xmax   Walltime
@ ---- ---------------- -------- -------- -------- -------- -------- --------
@    0     -76.03057455  0.0D+00  0.03375  0.02771  0.00000  0.00000      0.5
         Total SCF energy =    -76.032752983095

 Vector    2  Occ=2.000000D+00  E=-1.351598D+00

 Vector    3  Occ=2.000000D+00  E=-7.241394D-01

 Vector    4  Occ=2.000000D+00  E=-5.695557D-01

 Vector    5  Occ=2.000000D+00  E=-5.001682D-01

 Vector    6  Occ=0.000000D+00  E= 1.483012D-01

 Vector    7  Occ=0.000000D+00  E= 2.162698D-01

 Vector    8  Occ=0.000000D+00  E= 5.754338D-01

 Vector    9  Occ=0.000000D+00  E= 6.094161D-01

 Vector   10  Occ=0.000000D+00  E= 1.003039D+00

 Vector   11  Occ=0.000000D+00  E= 1.015928D+00

 Vector   12  Occ=0.000000D+00  E= 1.149879D+00

 Vector   13  Occ=0.000000D+00  E= 1.310764D+00

 Vector   14  Occ=0.000000D+00  E= 2.313639D+00

 Vector   15  Occ=0.000000D+00  E= 2.365941D+00

         Total SCF energy =    -76.032762700106

 Vector    2  Occ=2.000000D+00  E=-1.353696D+00

 Vector    3  Occ=2.000000D+00  E=-7.255763D-01

 Vector    4  Occ=2.000000D+00  E=-5.707257D-01

 Vector    5  Occ=2.000000D+00  E=-5.004990D-01

 Vector    6  Occ=0.000000D+00  E= 1.486548D-01

 Vector    7  Occ=0.000000D+00  E= 2.166461D-01

 Vector    8  Occ=0.000000D+00  E= 5.766077D-01

 Vector    9  Occ=0.000000D+00  E= 6.125554D-01

 Vector   10  Occ=0.000000D+00  E= 1.002918D+00

 Vector   11  Occ=0.000000D+00  E= 1.015480D+00

 Vector   12  Occ=0.000000D+00  E= 1.149846D+00

 Vector   13  Occ=0.000000D+00  E= 1.311072D+00

 Vector   14  Occ=0.000000D+00  E= 2.312000D+00

 Vector   15  Occ=0.000000D+00  E= 2.368747D+00

@    1     -76.03276270 -2.2D-03  0.00182  0.00126  0.03370  0.05947      1.0
         Total SCF energy =    -76.032777162888

 Vector    2  Occ=2.000000D+00  E=-1.352898D+00

 Vector    3  Occ=2.000000D+00  E=-7.267349D-01

 Vector    4  Occ=2.000000D+00  E=-5.692238D-01

 Vector    5  Occ=2.000000D+00  E=-5.001955D-01

 Vector    6  Occ=0.000000D+00  E= 1.488226D-01

 Vector    7  Occ=0.000000D+00  E= 2.165235D-01

 Vector    8  Occ=0.000000D+00  E= 5.780914D-01

 Vector    9  Occ=0.000000D+00  E= 6.101287D-01

 Vector   10  Occ=0.000000D+00  E= 1.003091D+00

 Vector   11  Occ=0.000000D+00  E= 1.015409D+00

 Vector   12  Occ=0.000000D+00  E= 1.149963D+00

 Vector   13  Occ=0.000000D+00  E= 1.310620D+00

 Vector   14  Occ=0.000000D+00  E= 2.314797D+00

 Vector   15  Occ=0.000000D+00  E= 2.365276D+00

         Total SCF energy =    -76.032777162888
@    2     -76.03277716 -1.4D-05  0.00012  0.00011  0.00408  0.00709      1.3
         Total SCF energy =    -76.032777322504

 Vector    2  Occ=2.000000D+00  E=-1.352935D+00

 Vector    3  Occ=2.000000D+00  E=-7.265744D-01

 Vector    4  Occ=2.000000D+00  E=-5.693599D-01

 Vector    5  Occ=2.000000D+00  E=-5.002205D-01

 Vector    6  Occ=0.000000D+00  E= 1.487961D-01

 Vector    7  Occ=0.000000D+00  E= 2.165280D-01

 Vector    8  Occ=0.000000D+00  E= 5.779013D-01

 Vector    9  Occ=0.000000D+00  E= 6.103192D-01

 Vector   10  Occ=0.000000D+00  E= 1.003075D+00

 Vector   11  Occ=0.000000D+00  E= 1.015427D+00

 Vector   12  Occ=0.000000D+00  E= 1.149951D+00

 Vector   13  Occ=0.000000D+00  E= 1.310662D+00

 Vector   14  Occ=0.000000D+00  E= 2.314529D+00

 Vector   15  Occ=0.000000D+00  E= 2.365588D+00

         Total SCF energy =    -76.032777322504
@    3     -76.03277732 -1.6D-07  0.00001  0.00001  0.00038  0.00063      1.6
@    3     -76.03277732 -1.6D-07  0.00001  0.00001  0.00038  0.00063      1.6

 Output coordinates in angstroms (scale by  1.889725989 to convert to a.u.)

  No.       Tag          Charge          X              Y              Z
 ---- ---------------- ---------- -------------- -------------- --------------
    1 O                    8.0000    -0.06292346     0.08687532     0.01931730
    2 H                    1.0000     0.87622632     0.07097338     0.01578140
    3 H                    1.0000    -0.36063386    -0.78274570    -0.17404871

         Total SCF energy =    -76.032777336487

 Vector    2  Occ=2.000000D+00  E=-1.352935D+00

 Vector    3  Occ=2.000000D+00  E=-7.265745D-01

 Vector    4  Occ=2.000000D+00  E=-5.693598D-01

 Vector    5  Occ=2.000000D+00  E=-5.002206D-01

 Vector    6  Occ=0.000000D+00  E= 1.487962D-01

 Vector    7  Occ=0.000000D+00  E= 2.165279D-01

 Vector    8  Occ=0.000000D+00  E= 5.779013D-01

 Vector    9  Occ=0.000000D+00  E= 6.103192D-01

 Vector   10  Occ=0.000000D+00  E= 1.003075D+00

 Vector   11  Occ=0.000000D+00  E= 1.015428D+00

 Vector   12  Occ=0.000000D+00  E= 1.149951D+00

 Vector   13  Occ=0.000000D+00  E= 1.310662D+00

 Vector   14  Occ=0.000000D+00  E= 2.314529D+00

 Vector   15  Occ=0.000000D+00  E= 2.365588D+00

       Multipole analysis of the density wrt the origin
       ------------------------------------------------

     L   x y z        total         open         nuclear
     -   - - -        -----         ----         -------
     0   0 0 0     -0.000000      0.000000     10.000000

     1   1 0 0      0.527239      0.000000      0.023064
     1   0 1 0     -0.727869      0.000000     -0.031690
     1   0 0 1     -0.161846      0.000000     -0.007047

     2   2 0 0     -3.520843      0.000000      3.319319
     2   1 1 0      0.717779      0.000000      1.073967
     2   1 0 1      0.159603      0.000000      0.238804
     2   0 2 0     -4.104893      0.000000      2.421562
     2   0 1 1      0.288044      0.000000      0.538450

 Zero-Point correction to Energy  =   14.618 kcal/mol  (  0.023295 au)
 Thermal correction to Energy     =   16.395 kcal/mol  (  0.026127 au)
 Thermal correction to Enthalpy   =   16.987 kcal/mol  (  0.027071 au)
 Total Entropy                    =   46.274 cal/mol-K
   - Translational                =   34.593 cal/mol-K (mol. weight =  18.0106)
   - Rotational                   =   11.679 cal/mol-K (symmetry #  =        1)
   - Vibrational                  =    0.003 cal/mol-K
   - Translational                  =    2.979 cal/mol-K
   - Rotational                     =    2.979 cal/mol-K
   - Vibrational                    =    0.022 cal/mol-K
 P.Frequency       -0.00       -0.00        0.00        0.00        0.00        0.00
 P.Frequency     1840.86     4140.97     4248.27

 Normal Eigenvalue ||           Projected Infra Red Intensities
  Mode   [cm**-1]  || [atomic units] [(debye/angs)**2] [(KM/mol)] [arbitrary]
 ------ ---------- || -------------- ----------------- ---------- -----------
    1       -0.000 ||    0.045338           1.046        44.197       5.633
    2       -0.000 ||    0.005696           0.131         5.553       0.708
    3        0.000 ||    0.190005           4.384       185.226      23.607
    4        0.000 ||    0.189041           4.361       184.286      23.488
    5        0.000 ||    0.126889           2.927       123.697      15.765
    6        0.000 ||    0.002466           0.057         2.404       0.306
    7     1840.863 ||    0.117904           2.720       114.939      14.649
    8     4140.966 ||    0.005570           0.129         5.430       0.692
    9     4248.269 ||    0.041459           0.956        40.416       5.151
 ----------------------------------------------------------------------------

 Total times  cpu:        1.5s     wall:        2.7s
