============================== echo of input deck ==============================
echo "He"
start He

scratch_dir /tmp
permanent_dir .

memory total 250 Mb

geometry units angstrom
 symmetry c1
 He 0.00 0.00 0.00
end

basis "ao basis" cartesian
 He library "6-311G**"
end

charge 0

scf
  rhf
  singlet
  direct
  maxiter 100
end

task scf energy
================================================================================

 Output coordinates in angstroms (scale by  1.889725989 to convert to a.u.)

  No.       Tag          Charge          X              Y              Z
 ---- ---------------- ---------- -------------- -------------- --------------
    1 He                   2.0000     0.00000000     0.00000000     0.00000000

         Total SCF energy =     -2.859895424569

 Vector    1  Occ=2.000000D+00  E=-9.168712D-01

 Vector    2  Occ=0.000000D+00  E= 8.294335D-01

 Vector    3  Occ=0.000000D+00  E= 1.502900D+00

 Vector    4  Occ=0.000000D+00  E= 1.502900D+00

 Vector    5  Occ=0.000000D+00  E= 1.502900D+00

 Vector    6  Occ=0.000000D+00  E= 6.313546D+00

       Multipole analysis of the density wrt the origin
       ------------------------------------------------

     L   x y z        total         open         nuclear
     -   - - -        -----         ----         -------
     0   0 0 0     -0.000000      0.000000      2.000000

     1   1 0 0      0.000000      0.000000      0.000000
     1   0 1 0      0.000000      0.000000      0.000000
     1   0 0 1      0.000000      0.000000      0.000000

     2   2 0 0     -0.784353      0.000000      0.000000
     2   1 1 0      0.000000      0.000000      0.000000
     2   1 0 1      0.000000      0.000000      0.000000
     2   0 2 0     -0.784353      0.000000      0.000000
     2   0 1 1      0.000000      0.000000      0.000000

 Total times  cpu:        0.0s     wall:        0.1s
