============================== echo of input deck ==============================
echo "Ne"
start Ne

scratch_dir /tmp
permanent_dir .

memory total 250 Mb

geometry units angstrom
 symmetry c1
 Ne 0.00 0.00 0.00
end

basis "ao basis" cartesian
 Ne library "6-311G(2df,2pd)"
end

charge 0

scf
  rhf
  singlet
  direct
  maxiter 100
end

task scf energy
================================================================================

 Output coordinates in angstroms (scale by  1.889725989 to convert to a.u.)

  No.       Tag          Charge          X              Y              Z
 ---- ---------------- ---------- -------------- -------------- --------------
    1 Ne                  10.0000     0.00000000     0.00000000     0.00000000

         Total SCF energy =   -128.524472510760

 Vector    2  Occ=2.000000D+00  E=-1.918824D+00

 Vector    3  Occ=2.000000D+00  E=-8.395407D-01

 Vector    4  Occ=2.000000D+00  E=-8.395407D-01

 Vector    5  Occ=2.000000D+00  E=-8.395407D-01

 Vector    6  Occ=0.000000D+00  E= 1.025777D+00

 Vector    7  Occ=0.000000D+00  E= 1.394731D+00

 Vector    8  Occ=0.000000D+00  E= 1.394731D+00

 Vector    9  Occ=0.000000D+00  E= 1.394731D+00

 Vector   10  Occ=0.000000D+00  E= 2.941772D+00

 Vector   11  Occ=0.000000D+00  E= 2.941772D+00

 Vector   12  Occ=0.000000D+00  E= 2.941772D+00

 Vector   13  Occ=0.000000D+00  E= 2.941772D+00

 Vector   14  Occ=0.000000D+00  E= 2.941772D+00

 Vector   15  Occ=0.000000D+00  E= 4.785625D+00

       Multipole analysis of the density wrt the origin
       ------------------------------------------------

     L   x y z        total         open         nuclear
     -   - - -        -----         ----         -------
     0   0 0 0     -0.000000      0.000000     10.000000

     1   1 0 0      0.000000      0.000000      0.000000
     1   0 1 0      0.000000      0.000000      0.000000
     1   0 0 1     -0.000000      0.000000      0.000000

     2   2 0 0     -3.050231      0.000000      0.000000
     2   1 1 0      0.000000      0.000000      0.000000
     2   1 0 1      0.000000      0.000000      0.000000
     2   0 2 0     -3.050231      0.000000      0.000000
     2   0 1 1     -0.000000      0.000000      0.000000

 Total times  cpu:        0.3s     wall:        0.6s
