============================== echo of input deck ==============================
echo "NH3"
start NH3

scratch_dir /tmp
permanent_dir .

memory total 250 Mb
geometry units angstrom
 symmetry c1
N         -1.98056        0.26410       -0.00863
H         -0.96323        0.32096        0.00453
H         -2.29215        0.96213       -0.68244
H         -2.29216        0.59530        0.90328
end

basis "ao basis" cartesian
 H library "6-311G**"
 N library "6-311G**"
end

charge 0

scf
    rhf
    singlet
    direct
    maxiter 100
end

task scf optimize
================================================================================

         Total SCF energy =    -56.209616389156
@ Step       Energy      Delta E   Gmax     Grms     Xrms     Xmax   Walltime
@ ---- ---------------- -------- -------- -------- -------- -------- --------
@    0     -56.20961639  0.0D+00  0.01476  0.00738  0.00000  0.00000      1.1
         Total SCF energy =    -56.210229613680

 Vector    6  Occ=0.000000D+00  E= 1.559706D-01

 Vector    7  Occ=0.000000D+00  E= 2.311365D-01

 Vector    8  Occ=0.000000D+00  E= 2.311366D-01

 Vector    9  Occ=0.000000D+00  E= 5.227378D-01

 Vector   10  Occ=0.000000D+00  E= 5.227382D-01

 Vector   11  Occ=0.000000D+00  E= 6.781881D-01

 Vector   12  Occ=0.000000D+00  E= 8.188527D-01

 Vector   13  Occ=0.000000D+00  E= 9.608316D-01

 Vector   14  Occ=0.000000D+00  E= 9.608322D-01

 Vector   15  Occ=0.000000D+00  E= 1.052240D+00

         Total SCF energy =    -56.210324616259

 Vector    2  Occ=2.000000D+00  E=-1.142149D+00

 Vector    3  Occ=2.000000D+00  E=-6.252991D-01

 Vector    4  Occ=2.000000D+00  E=-6.252982D-01

 Vector    5  Occ=2.000000D+00  E=-4.253693D-01

 Vector    6  Occ=0.000000D+00  E= 1.552965D-01

 Vector    7  Occ=0.000000D+00  E= 2.307032D-01

 Vector    8  Occ=0.000000D+00  E= 2.307033D-01

 Vector    9  Occ=0.000000D+00  E= 5.208316D-01

 Vector   10  Occ=0.000000D+00  E= 5.208324D-01

 Vector   11  Occ=0.000000D+00  E= 6.749475D-01

 Vector   12  Occ=0.000000D+00  E= 8.186503D-01

 Vector   13  Occ=0.000000D+00  E= 9.590013D-01

 Vector   14  Occ=0.000000D+00  E= 9.590014D-01

 Vector   15  Occ=0.000000D+00  E= 1.052295D+00

@    1     -56.21032462 -7.1D-04  0.00038  0.00030  0.01459  0.02788      2.5
         Total SCF energy =    -56.210352247464

 Vector    2  Occ=2.000000D+00  E=-1.141831D+00

 Vector    3  Occ=2.000000D+00  E=-6.255734D-01

 Vector    4  Occ=2.000000D+00  E=-6.255731D-01

 Vector    5  Occ=2.000000D+00  E=-4.248233D-01

 Vector    6  Occ=0.000000D+00  E= 1.553931D-01

 Vector    7  Occ=0.000000D+00  E= 2.307242D-01

 Vector    8  Occ=0.000000D+00  E= 2.307243D-01

 Vector    9  Occ=0.000000D+00  E= 5.210786D-01

 Vector   10  Occ=0.000000D+00  E= 5.210789D-01

 Vector   11  Occ=0.000000D+00  E= 6.736590D-01

 Vector   12  Occ=0.000000D+00  E= 8.188089D-01

 Vector   13  Occ=0.000000D+00  E= 9.590392D-01

 Vector   14  Occ=0.000000D+00  E= 9.590394D-01

 Vector   15  Occ=0.000000D+00  E= 1.052031D+00

         Total SCF energy =    -56.210410876470

 Vector    2  Occ=2.000000D+00  E=-1.140894D+00

 Vector    3  Occ=2.000000D+00  E=-6.263754D-01

 Vector    4  Occ=2.000000D+00  E=-6.263738D-01

 Vector    5  Occ=2.000000D+00  E=-4.232164D-01

 Vector    6  Occ=0.000000D+00  E= 1.556761D-01

 Vector    7  Occ=0.000000D+00  E= 2.307881D-01

 Vector    8  Occ=0.000000D+00  E= 2.307883D-01

 Vector    9  Occ=0.000000D+00  E= 5.218090D-01

 Vector   10  Occ=0.000000D+00  E= 5.218103D-01

 Vector   11  Occ=0.000000D+00  E= 6.698871D-01

 Vector   12  Occ=0.000000D+00  E= 8.192711D-01

 Vector   13  Occ=0.000000D+00  E= 9.591557D-01

 Vector   14  Occ=0.000000D+00  E= 9.591558D-01

 Vector   15  Occ=0.000000D+00  E= 1.051324D+00

@    2     -56.21041088 -8.6D-05  0.00017  0.00015  0.00620  0.01369      3.5
         Total SCF energy =    -56.210436873063

 Vector    2  Occ=2.000000D+00  E=-1.140108D+00

 Vector    3  Occ=2.000000D+00  E=-6.274769D-01

 Vector    4  Occ=2.000000D+00  E=-6.274757D-01

 Vector    5  Occ=2.000000D+00  E=-4.214291D-01

 Vector    6  Occ=0.000000D+00  E= 1.560507D-01

 Vector    7  Occ=0.000000D+00  E= 2.308983D-01

 Vector    8  Occ=0.000000D+00  E= 2.308986D-01

 Vector    9  Occ=0.000000D+00  E= 5.227942D-01

 Vector   10  Occ=0.000000D+00  E= 5.227954D-01

 Vector   11  Occ=0.000000D+00  E= 6.659795D-01

 Vector   12  Occ=0.000000D+00  E= 8.197922D-01

 Vector   13  Occ=0.000000D+00  E= 9.594447D-01

 Vector   14  Occ=0.000000D+00  E= 9.594451D-01

 Vector   15  Occ=0.000000D+00  E= 1.050648D+00

         Total SCF energy =    -56.210436873063
@    3     -56.21043687 -2.6D-05  0.00004  0.00002  0.00500  0.01189      4.1
         Total SCF energy =    -56.210437149329

 Vector    2  Occ=2.000000D+00  E=-1.139987D+00

 Vector    3  Occ=2.000000D+00  E=-6.275655D-01

 Vector    4  Occ=2.000000D+00  E=-6.275650D-01

 Vector    5  Occ=2.000000D+00  E=-4.212349D-01

 Vector    6  Occ=0.000000D+00  E= 1.560827D-01

 Vector    7  Occ=0.000000D+00  E= 2.309052D-01

 Vector    8  Occ=0.000000D+00  E= 2.309053D-01

 Vector    9  Occ=0.000000D+00  E= 5.228784D-01

 Vector   10  Occ=0.000000D+00  E= 5.228789D-01

 Vector   11  Occ=0.000000D+00  E= 6.655237D-01

 Vector   12  Occ=0.000000D+00  E= 8.198460D-01

 Vector   13  Occ=0.000000D+00  E= 9.594544D-01

 Vector   14  Occ=0.000000D+00  E= 9.594545D-01

 Vector   15  Occ=0.000000D+00  E= 1.050583D+00

       Multipole analysis of the density wrt the origin
       ------------------------------------------------

     L   x y z        total         open         nuclear
     -   - - -        -----         ----         -------
     0   0 0 0     -0.000000      0.000000     10.000000

     1   1 0 0      0.226498      0.000000      0.079308
     1   0 1 0      0.624154      0.000000      0.218453
     1   0 0 1      0.144389      0.000000      0.050561

     2   2 0 0     -4.724433      0.000000      4.245397
     2   1 1 0     -0.631311      0.000000     -1.114061
     2   1 0 1     -0.146045      0.000000     -0.257724
     2   0 2 0     -6.235024      0.000000      1.579703
     2   0 1 1     -0.402450      0.000000     -0.710195

         Total SCF energy =    -56.210437149329
@    4     -56.21043715 -2.8D-07  0.00000  0.00000  0.00057  0.00126      4.7
@    4     -56.21043715 -2.8D-07  0.00000  0.00000  0.00057  0.00126      4.7

 Output coordinates in angstroms (scale by  1.889725989 to convert to a.u.)

  No.       Tag          Charge          X              Y              Z
 ---- ---------------- ---------- -------------- -------------- --------------
    1 N                    7.0000    -0.03241934    -0.08934231    -0.02066673
    2 H                    1.0000     0.96803158    -0.05557068    -0.01284950
    3 H                    1.0000    -0.34956007     0.58013509    -0.69396178
    4 H                    1.0000    -0.34956817     0.21643191     0.87823400

 Total times  cpu:        2.3s     wall:        4.7s
